
     Program PWSCF v.6.3 starts on 26Mar2019 at 19:46:33 

     This program is part of the open-source Quantum ESPRESSO suite
     for quantum simulation of materials; please cite
         "P. Giannozzi et al., J. Phys.:Condens. Matter 21 395502 (2009);
         "P. Giannozzi et al., J. Phys.:Condens. Matter 29 465901 (2017);
          URL http://www.quantum-espresso.org", 
     in publications or presentations arising from this work. More details at
     http://www.quantum-espresso.org/quote

     Parallel version (MPI), running on     8 processors

     MPI processes distributed on     1 nodes
     R & G space division:  proc/nbgrp/npool/nimage =       8
     Reading input from aiida.in

     Current dimensions of program PWSCF are:
     Max number of different atomic species (ntypx) = 10
     Max number of k-points (npk) =  40000
     Max angular momentum in pseudopotentials (lmaxx) =  3

     Subspace diagonalization in iterative solution of the eigenvalue problem:
     a serial algorithm will be used


     Parallelization info
     --------------------
     sticks:   dense  smooth     PW     G-vecs:    dense   smooth      PW
     Min         120      61     18                 2512      889     153
     Max         122      63     19                 2514      891     156
     Sum         967     499    151                20107     7119    1243



     bravais-lattice index     =            0
     lattice parameter (alat)  =       7.6903  a.u.
     unit-cell volume          =     321.6039 (a.u.)^3
     number of atoms/cell      =            2
     number of atomic types    =            2
     number of electrons       =        28.00
     number of Kohn-Sham states=           14
     kinetic-energy cutoff     =      30.0000  Ry
     charge density cutoff     =     240.0000  Ry
     convergence threshold     =      1.0E-06
     mixing beta               =       0.7000
     number of iterations used =            8  plain     mixing
     Exchange-correlation      =  SLA  PW   PBX  PBC ( 1  4  3  4 0 0)
     nstep                     =           50


     celldm(1)=   7.690338  celldm(2)=   0.000000  celldm(3)=   0.000000
     celldm(4)=   0.000000  celldm(5)=   0.000000  celldm(6)=   0.000000

     crystal axes: (cart. coord. in units of alat)
               a(1) = (   0.000000   0.707107   0.707107 )  
               a(2) = (   0.707107   0.000000   0.707107 )  
               a(3) = (   0.707107   0.707107   0.000000 )  

     reciprocal axes: (cart. coord. in units 2 pi/alat)
               b(1) = ( -0.707107  0.707107  0.707107 )  
               b(2) = (  0.707107 -0.707107  0.707107 )  
               b(3) = (  0.707107  0.707107 -0.707107 )  


     PseudoPot. # 1 for Ge read from file:
     ./pseudo/ge_pbe_v1.4.uspp.F.UPF
     MD5 check sum: 9c9eaa91e581c3f09632fb3098b2c6b2
     Pseudo is Ultrasoft + core correction, Zval = 14.0
     Generated by new atomic code, or converted to UPF format
     Using radial grid of  873 points,  6 beta functions with: 
                l(1) =   0
                l(2) =   0
                l(3) =   1
                l(4) =   1
                l(5) =   2
                l(6) =   2
     Q(r) pseudized with  8 coefficients,  rinner =    1.400   1.400   1.400
                                                       1.400   1.400

     PseudoPot. # 2 for Ge read from file:
     ./pseudo/ge_pbe_v1.4.uspp.F.UPF
     MD5 check sum: 9c9eaa91e581c3f09632fb3098b2c6b2
     Pseudo is Ultrasoft + core correction, Zval = 14.0
     Generated by new atomic code, or converted to UPF format
     Using radial grid of  873 points,  6 beta functions with: 
                l(1) =   0
                l(2) =   0
                l(3) =   1
                l(4) =   1
                l(5) =   2
                l(6) =   2
     Q(r) pseudized with  8 coefficients,  rinner =    1.400   1.400   1.400
                                                       1.400   1.400

     atomic species   valence    mass     pseudopotential
        Ge1           14.00    72.61000     Ge( 1.00)
        Ge2           14.00    72.61000     Ge( 1.00)

     24 Sym. Ops. (no inversion) found


                                    s                        frac. trans.

      isym =  1     identity                                     

 cryst.   s( 1) = (     1          0          0      )
                  (     0          1          0      )
                  (     0          0          1      )

 cart.    s( 1) = (  1.0000000  0.0000000  0.0000000 )
                  (  0.0000000  1.0000000  0.0000000 )
                  (  0.0000000  0.0000000  1.0000000 )


      isym =  2     180 deg rotation - cart. axis [0,0,1]        

 cryst.   s( 2) = (     0          1         -1      )
                  (     1          0         -1      )
                  (     0          0         -1      )

 cart.    s( 2) = ( -1.0000000  0.0000000  0.0000000 )
                  (  0.0000000 -1.0000000  0.0000000 )
                  (  0.0000000  0.0000000  1.0000000 )


      isym =  3     180 deg rotation - cart. axis [0,1,0]        

 cryst.   s( 3) = (     0         -1          1      )
                  (     0         -1          0      )
                  (     1         -1          0      )

 cart.    s( 3) = ( -1.0000000  0.0000000  0.0000000 )
                  (  0.0000000  1.0000000  0.0000000 )
                  (  0.0000000  0.0000000 -1.0000000 )


      isym =  4     180 deg rotation - cart. axis [1,0,0]        

 cryst.   s( 4) = (    -1          0          0      )
                  (    -1          0          1      )
                  (    -1          1          0      )

 cart.    s( 4) = (  1.0000000  0.0000000  0.0000000 )
                  (  0.0000000 -1.0000000  0.0000000 )
                  (  0.0000000  0.0000000 -1.0000000 )


      isym =  5     120 deg rotation - cart. axis [-1,-1,-1]     

 cryst.   s( 5) = (     0          0          1      )
                  (     1          0          0      )
                  (     0          1          0      )

 cart.    s( 5) = (  0.0000000  1.0000000  0.0000000 )
                  (  0.0000000  0.0000000  1.0000000 )
                  (  1.0000000  0.0000000  0.0000000 )


      isym =  6     120 deg rotation - cart. axis [-1,1,1]       

 cryst.   s( 6) = (     1         -1          0      )
                  (     0         -1          1      )
                  (     0         -1          0      )

 cart.    s( 6) = (  0.0000000 -1.0000000  0.0000000 )
                  (  0.0000000  0.0000000  1.0000000 )
                  ( -1.0000000  0.0000000  0.0000000 )


      isym =  7     120 deg rotation - cart. axis [1,1,-1]       

 cryst.   s( 7) = (    -1          1          0      )
                  (    -1          0          0      )
                  (    -1          0          1      )

 cart.    s( 7) = (  0.0000000  1.0000000  0.0000000 )
                  (  0.0000000  0.0000000 -1.0000000 )
                  ( -1.0000000  0.0000000  0.0000000 )


      isym =  8     120 deg rotation - cart. axis [1,-1,1]       

 cryst.   s( 8) = (     0          0         -1      )
                  (     0          1         -1      )
                  (     1          0         -1      )

 cart.    s( 8) = (  0.0000000 -1.0000000  0.0000000 )
                  (  0.0000000  0.0000000 -1.0000000 )
                  (  1.0000000  0.0000000  0.0000000 )


      isym =  9     120 deg rotation - cart. axis [1,1,1]        

 cryst.   s( 9) = (     0          1          0      )
                  (     0          0          1      )
                  (     1          0          0      )

 cart.    s( 9) = (  0.0000000  0.0000000  1.0000000 )
                  (  1.0000000  0.0000000  0.0000000 )
                  (  0.0000000  1.0000000  0.0000000 )


      isym = 10     120 deg rotation - cart. axis [-1,1,-1]      

 cryst.   s(10) = (    -1          0          1      )
                  (    -1          1          0      )
                  (    -1          0          0      )

 cart.    s(10) = (  0.0000000  0.0000000  1.0000000 )
                  ( -1.0000000  0.0000000  0.0000000 )
                  (  0.0000000 -1.0000000  0.0000000 )


      isym = 11     120 deg rotation - cart. axis [1,-1,-1]      

 cryst.   s(11) = (     1          0         -1      )
                  (     0          0         -1      )
                  (     0          1         -1      )

 cart.    s(11) = (  0.0000000  0.0000000 -1.0000000 )
                  ( -1.0000000  0.0000000  0.0000000 )
                  (  0.0000000  1.0000000  0.0000000 )


      isym = 12     120 deg rotation - cart. axis [-1,-1,1]      

 cryst.   s(12) = (     0         -1          0      )
                  (     1         -1          0      )
                  (     0         -1          1      )

 cart.    s(12) = (  0.0000000  0.0000000 -1.0000000 )
                  (  1.0000000  0.0000000  0.0000000 )
                  (  0.0000000 -1.0000000  0.0000000 )


      isym = 13     inv. 180 deg rotation - cart. axis [1,1,0]   

 cryst.   s(13) = (     1          0         -1      )
                  (     0          1         -1      )
                  (     0          0         -1      )

 cart.    s(13) = (  0.0000000 -1.0000000  0.0000000 )
                  ( -1.0000000  0.0000000  0.0000000 )
                  (  0.0000000  0.0000000  1.0000000 )


      isym = 14     inv. 180 deg rotation - cart. axis [1,-1,0]  

 cryst.   s(14) = (     0          1          0      )
                  (     1          0          0      )
                  (     0          0          1      )

 cart.    s(14) = (  0.0000000  1.0000000  0.0000000 )
                  (  1.0000000  0.0000000  0.0000000 )
                  (  0.0000000  0.0000000  1.0000000 )


      isym = 15     inv.  90 deg rotation - cart. axis [0,0,-1]  

 cryst.   s(15) = (     0         -1          0      )
                  (     0         -1          1      )
                  (     1         -1          0      )

 cart.    s(15) = (  0.0000000 -1.0000000  0.0000000 )
                  (  1.0000000  0.0000000  0.0000000 )
                  (  0.0000000  0.0000000 -1.0000000 )


      isym = 16     inv.  90 deg rotation - cart. axis [0,0,1]   

 cryst.   s(16) = (    -1          0          1      )
                  (    -1          0          0      )
                  (    -1          1          0      )

 cart.    s(16) = (  0.0000000  1.0000000  0.0000000 )
                  ( -1.0000000  0.0000000  0.0000000 )
                  (  0.0000000  0.0000000 -1.0000000 )


      isym = 17     inv. 180 deg rotation - cart. axis [1,0,1]   

 cryst.   s(17) = (     1         -1          0      )
                  (     0         -1          0      )
                  (     0         -1          1      )

 cart.    s(17) = (  0.0000000  0.0000000 -1.0000000 )
                  (  0.0000000  1.0000000  0.0000000 )
                  ( -1.0000000  0.0000000  0.0000000 )


      isym = 18     inv. 180 deg rotation - cart. axis [-1,0,1]  

 cryst.   s(18) = (     0          0          1      )
                  (     0          1          0      )
                  (     1          0          0      )

 cart.    s(18) = (  0.0000000  0.0000000  1.0000000 )
                  (  0.0000000  1.0000000  0.0000000 )
                  (  1.0000000  0.0000000  0.0000000 )


      isym = 19     inv.  90 deg rotation - cart. axis [0,1,0]   

 cryst.   s(19) = (     0          0         -1      )
                  (     1          0         -1      )
                  (     0          1         -1      )

 cart.    s(19) = (  0.0000000  0.0000000 -1.0000000 )
                  (  0.0000000 -1.0000000  0.0000000 )
                  (  1.0000000  0.0000000  0.0000000 )


      isym = 20     inv.  90 deg rotation - cart. axis [0,-1,0]  

 cryst.   s(20) = (    -1          1          0      )
                  (    -1          0          1      )
                  (    -1          0          0      )

 cart.    s(20) = (  0.0000000  0.0000000  1.0000000 )
                  (  0.0000000 -1.0000000  0.0000000 )
                  ( -1.0000000  0.0000000  0.0000000 )


      isym = 21     inv. 180 deg rotation - cart. axis [0,1,1]   

 cryst.   s(21) = (    -1          0          0      )
                  (    -1          1          0      )
                  (    -1          0          1      )

 cart.    s(21) = (  1.0000000  0.0000000  0.0000000 )
                  (  0.0000000  0.0000000 -1.0000000 )
                  (  0.0000000 -1.0000000  0.0000000 )


      isym = 22     inv. 180 deg rotation - cart. axis [0,1,-1]  

 cryst.   s(22) = (     1          0          0      )
                  (     0          0          1      )
                  (     0          1          0      )

 cart.    s(22) = (  1.0000000  0.0000000  0.0000000 )
                  (  0.0000000  0.0000000  1.0000000 )
                  (  0.0000000  1.0000000  0.0000000 )


      isym = 23     inv.  90 deg rotation - cart. axis [-1,0,0]  

 cryst.   s(23) = (     0          1         -1      )
                  (     0          0         -1      )
                  (     1          0         -1      )

 cart.    s(23) = ( -1.0000000  0.0000000  0.0000000 )
                  (  0.0000000  0.0000000 -1.0000000 )
                  (  0.0000000  1.0000000  0.0000000 )


      isym = 24     inv.  90 deg rotation - cart. axis [1,0,0]   

 cryst.   s(24) = (     0         -1          1      )
                  (     1         -1          0      )
                  (     0         -1          0      )

 cart.    s(24) = ( -1.0000000  0.0000000  0.0000000 )
                  (  0.0000000  0.0000000  1.0000000 )
                  (  0.0000000 -1.0000000  0.0000000 )


   Cartesian axes

     site n.     atom                  positions (alat units)
         1           Ge1 tau(   1) = (   0.0000000   0.0000000   0.0000000  )
         2           Ge2 tau(   2) = (   0.3535534   0.3535534   0.3535534  )

   Crystallographic axes

     site n.     atom                  positions (cryst. coord.)
         1           Ge1 tau(   1) = (  0.0000000  0.0000000  0.0000000  )
         2           Ge2 tau(   2) = (  0.2500000  0.2500000  0.2500000  )

     number of k points=     3
                       cart. coord. in units 2pi/alat
        k(    1) = (   0.0000000   0.0000000   0.0000000), wk =   0.2500000
        k(    2) = (  -0.3535534  -0.3535534   0.3535534), wk =   1.0000000
        k(    3) = (  -0.7071068   0.0000000   0.0000000), wk =   0.7500000

                       cryst. coord.
        k(    1) = (   0.0000000   0.0000000   0.0000000), wk =   0.2500000
        k(    2) = (   0.0000000   0.0000000  -0.5000000), wk =   1.0000000
        k(    3) = (   0.0000000  -0.5000000  -0.5000000), wk =   0.7500000

     Dense  grid:    20107 G-vectors     FFT dimensions: (  40,  40,  40)

     Smooth grid:     7119 G-vectors     FFT dimensions: (  27,  27,  27)

     Dynamical RAM for                 wfc:       0.02 MB

     Dynamical RAM for     wfc (w. buffer):       0.09 MB

     Dynamical RAM for           str. fact:       0.08 MB

     Dynamical RAM for           local pot:       0.00 MB

     Dynamical RAM for          nlocal pot:       0.06 MB

     Dynamical RAM for                qrad:       6.09 MB

     Dynamical RAM for          rho,v,vnew:       0.30 MB

     Dynamical RAM for               rhoin:       0.10 MB

     Dynamical RAM for            rho*nmix:       0.61 MB

     Dynamical RAM for           G-vectors:       0.15 MB

     Dynamical RAM for          h,s,v(r/c):       0.14 MB

     Dynamical RAM for          <psi|beta>:       0.01 MB

     Dynamical RAM for                 psi:       0.09 MB

     Dynamical RAM for                hpsi:       0.09 MB

     Dynamical RAM for                spsi:       0.09 MB

     Dynamical RAM for      wfcinit/wfcrot:       0.07 MB

     Dynamical RAM for           addusdens:       7.17 MB

     Dynamical RAM for          addusforce:       7.32 MB

     Dynamical RAM for         addusstress:       7.71 MB

     Estimated static dynamical RAM per process >       7.90 MB

     Estimated max dynamical RAM per process >      15.61 MB

     Estimated total dynamical RAM >     124.91 MB

     Check: negative/imaginary core charge=   -0.000001    0.000000

     Initial potential from superposition of free atoms

     starting charge   27.99825, renormalised to   28.00000
     Starting wfcs are   18 randomized atomic wfcs

     total cpu time spent up to now is        1.0 secs

     Self-consistent Calculation

     iteration #  1     ecut=    30.00 Ry     beta= 0.70
     Davidson diagonalization with overlap
     ethr =  1.00E-02,  avg # of iterations =  2.0

     Threshold (ethr) on eigenvalues was too large:
     Diagonalizing with lowered threshold

     Davidson diagonalization with overlap
     ethr =  2.23E-04,  avg # of iterations =  1.7

     total cpu time spent up to now is        1.1 secs

     total energy              =    -427.06134211 Ry
     Harris-Foulkes estimate   =    -427.07573357 Ry
     estimated scf accuracy    <       0.06473402 Ry

     iteration #  2     ecut=    30.00 Ry     beta= 0.70
     Davidson diagonalization with overlap
     ethr =  2.31E-04,  avg # of iterations =  1.3

     total cpu time spent up to now is        1.1 secs

     total energy              =    -427.06388221 Ry
     Harris-Foulkes estimate   =    -427.06346995 Ry
     estimated scf accuracy    <       0.00302144 Ry

     iteration #  3     ecut=    30.00 Ry     beta= 0.70
     Davidson diagonalization with overlap
     ethr =  1.08E-05,  avg # of iterations =  2.0

     total cpu time spent up to now is        1.2 secs

     total energy              =    -427.06414841 Ry
     Harris-Foulkes estimate   =    -427.06411298 Ry
     estimated scf accuracy    <       0.00003685 Ry

     iteration #  4     ecut=    30.00 Ry     beta= 0.70
     Davidson diagonalization with overlap
     ethr =  1.32E-07,  avg # of iterations =  2.7

     total cpu time spent up to now is        1.2 secs

     End of self-consistent calculation

          k = 0.0000 0.0000 0.0000 (   893 PWs)   bands (ev):

   -16.5301 -16.5301 -16.5301 -16.4976 -16.4976 -16.3210 -16.3210 -16.3210
   -16.3003 -16.3003  -4.3132   7.7123   8.0950   8.0950

     occupation numbers 
     1.0000   1.0000   1.0000   1.0000   1.0000   1.0000   1.0000   1.0000
     1.0000   1.0000   1.0000   1.0000   1.0000   1.0000

          k =-0.3536-0.3536 0.3536 (   886 PWs)   bands (ev):

   -16.5440 -16.5440 -16.5087 -16.4602 -16.4602 -16.3453 -16.3453 -16.3359
   -16.2797 -16.2797  -2.3357   0.7011   6.7398   6.7398

     occupation numbers 
     1.0000   1.0000   1.0000   1.0000   1.0000   1.0000   1.0000   1.0000
     1.0000   1.0000   1.0000   1.0000   1.0000   1.0000

          k =-0.7071 0.0000 0.0000 (   894 PWs)   bands (ev):

   -16.5489 -16.5489 -16.4859 -16.4858 -16.4001 -16.3997 -16.3453 -16.3453
   -16.2677 -16.2677  -0.6069  -0.6067   5.1454   5.1454

     occupation numbers 
     1.0000   1.0000   1.0000   1.0000   1.0000   1.0000   1.0000   1.0000
     1.0000   1.0000   1.0000   1.0000   1.0000   1.0000

     highest occupied level (ev):     8.0950

!    total energy              =    -427.06415846 Ry
     Harris-Foulkes estimate   =    -427.06415794 Ry
     estimated scf accuracy    <       0.00000051 Ry

     The total energy is the sum of the following terms:

     one-electron contribution =    -284.33122178 Ry
     hartree contribution      =     168.04060905 Ry
     xc contribution           =    -116.61508923 Ry
     ewald contribution        =    -194.15845650 Ry

     convergence has been achieved in   4 iterations

     Forces acting on atoms (cartesian axes, Ry/au):

     atom    1 type  1   force =     0.00000000    0.00000000    0.00000000
     atom    2 type  2   force =     0.00000000    0.00000000    0.00000000
     The non-local contrib.  to forces
     atom    1 type  1   force =     0.00000000    0.00000000    0.00000000
     atom    2 type  2   force =     0.00000000    0.00000000    0.00000000
     The ionic contribution  to forces
     atom    1 type  1   force =     0.00000000    0.00000000    0.00000000
     atom    2 type  2   force =    -0.00000000   -0.00000000   -0.00000000
     The local contribution  to forces
     atom    1 type  1   force =    -0.00000000    0.00000000   -0.00000000
     atom    2 type  2   force =    -0.00000002   -0.00000002   -0.00000002
     The core correction contribution to forces
     atom    1 type  1   force =    -0.00000000    0.00000000    0.00000000
     atom    2 type  2   force =    -0.00000000   -0.00000000   -0.00000000
     The Hubbard contrib.    to forces
     atom    1 type  1   force =     0.00000000    0.00000000    0.00000000
     atom    2 type  2   force =     0.00000000    0.00000000    0.00000000
     The SCF correction term to forces
     atom    1 type  1   force =    -0.00000000   -0.00000000   -0.00000000
     atom    2 type  2   force =     0.00000000    0.00000000    0.00000000

     Total force =     0.000000     Total SCF correction =     0.000000


     Computing stress (Cartesian axis) and pressure

          total   stress  (Ry/bohr**3)                   (kbar)     P=  -24.93
  -0.00016950   0.00000000  -0.00000000        -24.93      0.00     -0.00
  -0.00000000  -0.00016950  -0.00000000         -0.00    -24.93     -0.00
  -0.00000000  -0.00000000  -0.00016950         -0.00     -0.00    -24.93

     kinetic stress (kbar)   9659.74      0.00      0.00
                                0.00   9659.74     -0.00
                                0.00     -0.00   9659.74

     local   stress (kbar)   1031.51      0.00      0.00
                                0.00   1031.51      0.00
                                0.00      0.00   1031.51

     nonloc. stress (kbar)   2644.64     -0.00      0.00
                               -0.00   2644.64     -0.00
                               -0.00      0.00   2644.64

     hartree stress (kbar)  25621.19      0.00     -0.00
                                0.00  25621.19      0.00
                               -0.00      0.00  25621.19

     exc-cor stress (kbar)  18735.91     -0.00     -0.00
                               -0.00  18735.91     -0.00
                               -0.00     -0.00  18735.91

     corecor stress (kbar) -28114.54      0.00      0.00
                                0.00 -28114.54      0.00
                                0.00      0.00 -28114.54

     ewald   stress (kbar) -29603.38     -0.00     -0.00
                               -0.00 -29603.38     -0.00
                               -0.00     -0.00 -29603.38

     hubbard stress (kbar)      0.00      0.00      0.00
                                0.00      0.00      0.00
                                0.00      0.00      0.00

     london  stress (kbar)      0.00      0.00      0.00
                                0.00      0.00      0.00
                                0.00      0.00      0.00

     DFT-D3  stress (kbar)      0.00      0.00      0.00
                                0.00      0.00      0.00
                                0.00      0.00      0.00

     XDM     stress (kbar)      0.00      0.00      0.00
                                0.00      0.00      0.00
                                0.00      0.00      0.00

     dft-nl  stress (kbar)      0.00      0.00      0.00
                                0.00      0.00      0.00
                                0.00      0.00      0.00

     TS-vdW  stress (kbar)      0.00      0.00      0.00
                                0.00      0.00      0.00
                                0.00      0.00      0.00



     BFGS Geometry Optimization

     number of scf cycles    =   1
     number of bfgs steps    =   0

     enthalpy new            =    -427.0641584615 Ry

     new trust radius        =       0.0151987587 bohr
     new conv_thr            =       0.0000010000 Ry

     new unit-cell volume =    317.53278 a.u.^3 (    47.05350 Ang^3 )
     density =      5.12488 g/cm^3

CELL_PARAMETERS (angstrom)
   0.000000000   2.865413610   2.865413610
   2.865413610  -0.000000000   2.865413610
   2.865413610   2.865413610  -0.000000000

ATOMIC_POSITIONS (angstrom)
Ge1      0.000000000   0.000000000   0.000000000
Ge2      1.432706805   1.432706805   1.432706805



     Writing output data file aiida.save/
     NEW-OLD atomic charge density approx. for the potential

     Check: negative/imaginary core charge=   -0.000001    0.000000
     extrapolated charge   27.64103, renormalised to   28.00000

     total cpu time spent up to now is        2.3 secs

     Self-consistent Calculation

     iteration #  1     ecut=    30.00 Ry     beta= 0.70
     Davidson diagonalization with overlap
     ethr =  1.00E-06,  avg # of iterations =  4.3

     total cpu time spent up to now is        2.4 secs

     total energy              =    -427.02577119 Ry
     Harris-Foulkes estimate   =    -430.40565576 Ry
     estimated scf accuracy    <       0.02005697 Ry

     iteration #  2     ecut=    30.00 Ry     beta= 0.70
     Davidson diagonalization with overlap
     ethr =  7.16E-05,  avg # of iterations =  3.0

     total cpu time spent up to now is        2.4 secs

     total energy              =    -427.06491111 Ry
     Harris-Foulkes estimate   =    -427.08066570 Ry
     estimated scf accuracy    <       0.03309139 Ry

     iteration #  3     ecut=    30.00 Ry     beta= 0.70
     Davidson diagonalization with overlap
     ethr =  7.16E-05,  avg # of iterations =  2.0

     total cpu time spent up to now is        2.5 secs

     total energy              =    -427.06592211 Ry
     Harris-Foulkes estimate   =    -427.06742473 Ry
     estimated scf accuracy    <       0.00608025 Ry

     iteration #  4     ecut=    30.00 Ry     beta= 0.70
     Davidson diagonalization with overlap
     ethr =  2.17E-05,  avg # of iterations =  1.0

     total cpu time spent up to now is        2.6 secs

     total energy              =    -427.06430643 Ry
     Harris-Foulkes estimate   =    -427.06604490 Ry
     estimated scf accuracy    <       0.00320996 Ry

     iteration #  5     ecut=    30.00 Ry     beta= 0.70
     Davidson diagonalization with overlap
     ethr =  1.15E-05,  avg # of iterations =  2.0

     total cpu time spent up to now is        2.6 secs

     total energy              =    -427.06440489 Ry
     Harris-Foulkes estimate   =    -427.06465078 Ry
     estimated scf accuracy    <       0.00033484 Ry

     iteration #  6     ecut=    30.00 Ry     beta= 0.70
     Davidson diagonalization with overlap
     ethr =  1.20E-06,  avg # of iterations =  2.0

     total cpu time spent up to now is        2.7 secs

     total energy              =    -427.06450072 Ry
     Harris-Foulkes estimate   =    -427.06449918 Ry
     estimated scf accuracy    <       0.00000108 Ry

     iteration #  7     ecut=    30.00 Ry     beta= 0.70
     Davidson diagonalization with overlap
     ethr =  3.86E-09,  avg # of iterations =  3.7

     total cpu time spent up to now is        2.7 secs

     total energy              =    -427.06450407 Ry
     Harris-Foulkes estimate   =    -427.06450132 Ry
     estimated scf accuracy    <       0.00000468 Ry

     iteration #  8     ecut=    30.00 Ry     beta= 0.70
     Davidson diagonalization with overlap
     ethr =  3.86E-09,  avg # of iterations =  2.0

     total cpu time spent up to now is        2.8 secs

     total energy              =    -427.06449641 Ry
     Harris-Foulkes estimate   =    -427.06450437 Ry
     estimated scf accuracy    <       0.00001055 Ry

     iteration #  9     ecut=    30.00 Ry     beta= 0.70
     Davidson diagonalization with overlap
     ethr =  3.86E-09,  avg # of iterations =  3.0

     total cpu time spent up to now is        2.8 secs

     End of self-consistent calculation

          k = 0.0000 0.0000 0.0000 (   893 PWs)   bands (ev):

   -16.3719 -16.3719 -16.3719 -16.3389 -16.3389 -16.1549 -16.1549 -16.1549
   -16.1344 -16.1344  -4.2434   7.9884   8.2583   8.2583

     occupation numbers 
     1.0000   1.0000   1.0000   1.0000   1.0000   1.0000   1.0000   1.0000
     1.0000   1.0000   1.0000   1.0000   1.0000   1.0000

          k =-0.3551-0.3551 0.3551 (   886 PWs)   bands (ev):

   -16.3871 -16.3871 -16.3506 -16.3003 -16.3003 -16.1806 -16.1806 -16.1706
   -16.1126 -16.1126  -2.2356   0.8093   6.8835   6.8835

     occupation numbers 
     1.0000   1.0000   1.0000   1.0000   1.0000   1.0000   1.0000   1.0000
     1.0000   1.0000   1.0000   1.0000   1.0000   1.0000

          k =-0.7101 0.0000 0.0000 (   894 PWs)   bands (ev):

   -16.3926 -16.3926 -16.3264 -16.3264 -16.2371 -16.2371 -16.1810 -16.1810
   -16.1001 -16.1001  -0.4892  -0.4892   5.2649   5.2649

     occupation numbers 
     1.0000   1.0000   1.0000   1.0000   1.0000   1.0000   1.0000   1.0000
     1.0000   1.0000   1.0000   1.0000   1.0000   1.0000

     highest occupied level (ev):     8.2583

!    total energy              =    -427.06449913 Ry
     Harris-Foulkes estimate   =    -427.06449920 Ry
     estimated scf accuracy    <       0.00000015 Ry

     The total energy is the sum of the following terms:

     one-electron contribution =    -282.97223591 Ry
     hartree contribution      =     167.52503800 Ry
     xc contribution           =    -116.63258226 Ry
     ewald contribution        =    -194.98471897 Ry

     convergence has been achieved in   9 iterations

     Forces acting on atoms (cartesian axes, Ry/au):

     atom    1 type  1   force =    -0.00000000   -0.00000000    0.00000000
     atom    2 type  2   force =    -0.00000000    0.00000000   -0.00000000
     The non-local contrib.  to forces
     atom    1 type  1   force =     0.00000000    0.00000000   -0.00000000
     atom    2 type  2   force =     0.00000000   -0.00000000   -0.00000000
     The ionic contribution  to forces
     atom    1 type  1   force =     0.00000000    0.00000000    0.00000000
     atom    2 type  2   force =    -0.00000000   -0.00000000   -0.00000000
     The local contribution  to forces
     atom    1 type  1   force =    -0.00000000    0.00000000   -0.00000000
     atom    2 type  2   force =    -0.00000002   -0.00000002   -0.00000002
     The core correction contribution to forces
     atom    1 type  1   force =     0.00000000    0.00000000   -0.00000000
     atom    2 type  2   force =    -0.00000000   -0.00000000   -0.00000000
     The Hubbard contrib.    to forces
     atom    1 type  1   force =     0.00000000    0.00000000    0.00000000
     atom    2 type  2   force =     0.00000000    0.00000000    0.00000000
     The SCF correction term to forces
     atom    1 type  1   force =    -0.00000000   -0.00000000    0.00000000
     atom    2 type  2   force =    -0.00000000   -0.00000000   -0.00000000

     Total force =     0.000000     Total SCF correction =     0.000000


     Computing stress (Cartesian axis) and pressure

          total   stress  (Ry/bohr**3)                   (kbar)     P=   -5.80
  -0.00003944   0.00000000   0.00000000         -5.80      0.00      0.00
   0.00000000  -0.00003944  -0.00000000          0.00     -5.80     -0.00
  -0.00000000   0.00000000  -0.00003944         -0.00      0.00     -5.80

     kinetic stress (kbar)   9788.65      0.00     -0.00
                                0.00   9788.65      0.00
                                0.00     -0.00   9788.65

     local   stress (kbar)   1254.12      0.00      0.00
                                0.00   1254.12      0.00
                                0.00      0.00   1254.12

     nonloc. stress (kbar)   2693.00      0.00      0.00
                                0.00   2693.00      0.00
                                0.00      0.00   2693.00

     hartree stress (kbar)  25870.06      0.00     -0.00
                                0.00  25870.06     -0.00
                               -0.00     -0.00  25870.06

     exc-cor stress (kbar)  18974.18     -0.00     -0.00
                               -0.00  18974.18     -0.00
                               -0.00     -0.00  18974.18

     corecor stress (kbar) -28475.28      0.00      0.00
                                0.00 -28475.28      0.00
                                0.00      0.00 -28475.28

     ewald   stress (kbar) -30110.53     -0.00     -0.00
                               -0.00 -30110.53     -0.00
                               -0.00     -0.00 -30110.53

     hubbard stress (kbar)      0.00      0.00      0.00
                                0.00      0.00      0.00
                                0.00      0.00      0.00

     london  stress (kbar)      0.00      0.00      0.00
                                0.00      0.00      0.00
                                0.00      0.00      0.00

     DFT-D3  stress (kbar)      0.00      0.00      0.00
                                0.00      0.00      0.00
                                0.00      0.00      0.00

     XDM     stress (kbar)      0.00      0.00      0.00
                                0.00      0.00      0.00
                                0.00      0.00      0.00

     dft-nl  stress (kbar)      0.00      0.00      0.00
                                0.00      0.00      0.00
                                0.00      0.00      0.00

     TS-vdW  stress (kbar)      0.00      0.00      0.00
                                0.00      0.00      0.00
                                0.00      0.00      0.00



     number of scf cycles    =   2
     number of bfgs steps    =   1

     enthalpy old            =    -427.0641584615 Ry
     enthalpy new            =    -427.0644991288 Ry

     CASE: enthalpy_new < enthalpy_old

     new trust radius        =       0.0045479487 bohr
     new conv_thr            =       0.0000000100 Ry

     new unit-cell volume =    316.31870 a.u.^3 (    46.87359 Ang^3 )
     density =      5.14455 g/cm^3

CELL_PARAMETERS (angstrom)
   0.000000000   2.861757001   2.861757001
   2.861757001  -0.000000000   2.861757001
   2.861757001   2.861757001  -0.000000000

ATOMIC_POSITIONS (angstrom)
Ge1     -0.000000000  -0.000000000   0.000000000
Ge2      1.430878500   1.430878500   1.430878500



     Writing output data file aiida.save/
     NEW-OLD atomic charge density approx. for the potential

     Check: negative/imaginary core charge=   -0.000001    0.000000
     extrapolated charge   27.89254, renormalised to   28.00000

     total cpu time spent up to now is        3.8 secs

     Self-consistent Calculation

     iteration #  1     ecut=    30.00 Ry     beta= 0.70
     Davidson diagonalization with overlap
     ethr =  1.00E-06,  avg # of iterations =  3.3

     total cpu time spent up to now is        3.9 secs

     total energy              =    -427.06081910 Ry
     Harris-Foulkes estimate   =    -428.06426371 Ry
     estimated scf accuracy    <       0.00191317 Ry

     iteration #  2     ecut=    30.00 Ry     beta= 0.70
     Davidson diagonalization with overlap
     ethr =  6.83E-06,  avg # of iterations =  3.0

     total cpu time spent up to now is        3.9 secs

     total energy              =    -427.06453039 Ry
     Harris-Foulkes estimate   =    -427.06601924 Ry
     estimated scf accuracy    <       0.00311482 Ry

     iteration #  3     ecut=    30.00 Ry     beta= 0.70
     Davidson diagonalization with overlap
     ethr =  6.83E-06,  avg # of iterations =  2.0

     total cpu time spent up to now is        4.0 secs

     total energy              =    -427.06460211 Ry
     Harris-Foulkes estimate   =    -427.06476118 Ry
     estimated scf accuracy    <       0.00058664 Ry

     iteration #  4     ecut=    30.00 Ry     beta= 0.70
     Davidson diagonalization with overlap
     ethr =  2.10E-06,  avg # of iterations =  1.0

     total cpu time spent up to now is        4.0 secs

     total energy              =    -427.06445349 Ry
     Harris-Foulkes estimate   =    -427.06461597 Ry
     estimated scf accuracy    <       0.00028739 Ry

     iteration #  5     ecut=    30.00 Ry     beta= 0.70
     Davidson diagonalization with overlap
     ethr =  1.03E-06,  avg # of iterations =  2.0

     total cpu time spent up to now is        4.1 secs

     total energy              =    -427.06447108 Ry
     Harris-Foulkes estimate   =    -427.06448819 Ry
     estimated scf accuracy    <       0.00002317 Ry

     iteration #  6     ecut=    30.00 Ry     beta= 0.70
     Davidson diagonalization with overlap
     ethr =  8.27E-08,  avg # of iterations =  2.0

     total cpu time spent up to now is        4.1 secs

     total energy              =    -427.06447823 Ry
     Harris-Foulkes estimate   =    -427.06447725 Ry
     estimated scf accuracy    <       0.00000007 Ry

     iteration #  7     ecut=    30.00 Ry     beta= 0.70
     Davidson diagonalization with overlap
     ethr =  2.47E-10,  avg # of iterations =  4.0

     total cpu time spent up to now is        4.2 secs

     total energy              =    -427.06447601 Ry
     Harris-Foulkes estimate   =    -427.06447964 Ry
     estimated scf accuracy    <       0.00000485 Ry

     iteration #  8     ecut=    30.00 Ry     beta= 0.70
     Davidson diagonalization with overlap
     ethr =  2.47E-10,  avg # of iterations =  4.0

     total cpu time spent up to now is        4.3 secs

     total energy              =    -427.06447724 Ry
     Harris-Foulkes estimate   =    -427.06447726 Ry
     estimated scf accuracy    <       0.00000003 Ry

     iteration #  9     ecut=    30.00 Ry     beta= 0.70
     Davidson diagonalization with overlap
     ethr =  9.06E-11,  avg # of iterations =  2.0

     total cpu time spent up to now is        4.3 secs

     End of self-consistent calculation

          k = 0.0000 0.0000 0.0000 (   893 PWs)   bands (ev):

   -16.3275 -16.3275 -16.3275 -16.2943 -16.2943 -16.1081 -16.1081 -16.1081
   -16.0876 -16.0876  -4.2241   8.0696   8.3058   8.3058

     occupation numbers 
     1.0000   1.0000   1.0000   1.0000   1.0000   1.0000   1.0000   1.0000
     1.0000   1.0000   1.0000   1.0000   1.0000   1.0000

          k =-0.3555-0.3555 0.3555 (   886 PWs)   bands (ev):

   -16.3432 -16.3432 -16.3062 -16.2553 -16.2553 -16.1343 -16.1343 -16.1240
   -16.0655 -16.0655  -2.2072   0.8401   6.9254   6.9254

     occupation numbers 
     1.0000   1.0000   1.0000   1.0000   1.0000   1.0000   1.0000   1.0000
     1.0000   1.0000   1.0000   1.0000   1.0000   1.0000

          k =-0.7110 0.0000 0.0000 (   894 PWs)   bands (ev):

   -16.3487 -16.3487 -16.2817 -16.2817 -16.1913 -16.1913 -16.1347 -16.1347
   -16.0528 -16.0528  -0.4556  -0.4556   5.2995   5.2995

     occupation numbers 
     1.0000   1.0000   1.0000   1.0000   1.0000   1.0000   1.0000   1.0000
     1.0000   1.0000   1.0000   1.0000   1.0000   1.0000

     highest occupied level (ev):     8.3058

!    total energy              =    -427.06447725 Ry
     Harris-Foulkes estimate   =    -427.06447725 Ry
     estimated scf accuracy    <          3.0E-09 Ry

     The total energy is the sum of the following terms:

     one-electron contribution =    -282.56496729 Ry
     hartree contribution      =     167.37254279 Ry
     xc contribution           =    -116.63819208 Ry
     ewald contribution        =    -195.23386067 Ry

     convergence has been achieved in   9 iterations

     Forces acting on atoms (cartesian axes, Ry/au):

     atom    1 type  1   force =     0.00000000   -0.00000000   -0.00000000
     atom    2 type  2   force =    -0.00000000    0.00000000    0.00000000
     The non-local contrib.  to forces
     atom    1 type  1   force =     0.00000000    0.00000000    0.00000000
     atom    2 type  2   force =     0.00000000   -0.00000000    0.00000000
     The ionic contribution  to forces
     atom    1 type  1   force =     0.00000000    0.00000000    0.00000000
     atom    2 type  2   force =    -0.00000000   -0.00000000   -0.00000000
     The local contribution  to forces
     atom    1 type  1   force =     0.00000000   -0.00000000    0.00000000
     atom    2 type  2   force =    -0.00000002   -0.00000002   -0.00000002
     The core correction contribution to forces
     atom    1 type  1   force =     0.00000000   -0.00000000    0.00000000
     atom    2 type  2   force =    -0.00000000   -0.00000000   -0.00000000
     The Hubbard contrib.    to forces
     atom    1 type  1   force =     0.00000000    0.00000000    0.00000000
     atom    2 type  2   force =     0.00000000    0.00000000    0.00000000
     The SCF correction term to forces
     atom    1 type  1   force =    -0.00000000    0.00000000    0.00000000
     atom    2 type  2   force =    -0.00000000   -0.00000000   -0.00000000

     Total force =     0.000000     Total SCF correction =     0.000000


     Computing stress (Cartesian axis) and pressure

          total   stress  (Ry/bohr**3)                   (kbar)     P=    5.13
   0.00003485   0.00000000   0.00000000          5.13      0.00      0.00
   0.00000000   0.00003485   0.00000000          0.00      5.13      0.00
   0.00000000   0.00000000   0.00003485          0.00      0.00      5.13

     kinetic stress (kbar)   9827.93     -0.00     -0.00
                               -0.00   9827.93     -0.00
                               -0.00     -0.00   9827.93

     local   stress (kbar)   1322.01      0.00      0.00
                                0.00   1322.01      0.00
                                0.00      0.00   1322.01

     nonloc. stress (kbar)   2712.49      0.00      0.00
                                0.00   2712.49      0.00
                                0.00      0.00   2712.49

     hartree stress (kbar)  25945.72     -0.00     -0.00
                               -0.00  25945.72     -0.00
                               -0.00     -0.00  25945.72

     exc-cor stress (kbar)  19046.38     -0.00     -0.00
                               -0.00  19046.38     -0.00
                               -0.00     -0.00  19046.38

     corecor stress (kbar) -28584.69      0.00      0.00
                                0.00 -28584.69      0.00
                                0.00      0.00 -28584.69

     ewald   stress (kbar) -30264.72     -0.00     -0.00
                               -0.00 -30264.72     -0.00
                               -0.00     -0.00 -30264.72

     hubbard stress (kbar)      0.00      0.00      0.00
                                0.00      0.00      0.00
                                0.00      0.00      0.00

     london  stress (kbar)      0.00      0.00      0.00
                                0.00      0.00      0.00
                                0.00      0.00      0.00

     DFT-D3  stress (kbar)      0.00      0.00      0.00
                                0.00      0.00      0.00
                                0.00      0.00      0.00

     XDM     stress (kbar)      0.00      0.00      0.00
                                0.00      0.00      0.00
                                0.00      0.00      0.00

     dft-nl  stress (kbar)      0.00      0.00      0.00
                                0.00      0.00      0.00
                                0.00      0.00      0.00

     TS-vdW  stress (kbar)      0.00      0.00      0.00
                                0.00      0.00      0.00
                                0.00      0.00      0.00



     number of scf cycles    =   3
     number of bfgs steps    =   2

     enthalpy old            =    -427.0644991288 Ry
     enthalpy new            =    -427.0644772455 Ry

     CASE: enthalpy_new > enthalpy_old

     new trust radius        =       0.0015602920 bohr
     new conv_thr            =       0.0000000100 Ry

     new unit-cell volume =    317.11564 a.u.^3 (    46.99169 Ang^3 )
     density =      5.13162 g/cm^3

CELL_PARAMETERS (angstrom)
   0.000000000   2.864158314   2.864158314
   2.864158314  -0.000000000   2.864158314
   2.864158314   2.864158314  -0.000000000

ATOMIC_POSITIONS (angstrom)
Ge1     -0.000000000   0.000000000   0.000000000
Ge2      1.432079157   1.432079157   1.432079157



     Writing output data file aiida.save/
     NEW-OLD atomic charge density approx. for the potential

     Check: negative/imaginary core charge=   -0.000001    0.000000
     extrapolated charge   28.07036, renormalised to   28.00000

     total cpu time spent up to now is        5.3 secs

     Self-consistent Calculation

     iteration #  1     ecut=    30.00 Ry     beta= 0.70
     Davidson diagonalization with overlap
     ethr =  1.00E-06,  avg # of iterations =  3.0

     total cpu time spent up to now is        5.3 secs

     total energy              =    -427.06287913 Ry
     Harris-Foulkes estimate   =    -426.40906495 Ry
     estimated scf accuracy    <       0.00084406 Ry

     iteration #  2     ecut=    30.00 Ry     beta= 0.70
     Davidson diagonalization with overlap
     ethr =  3.01E-06,  avg # of iterations =  3.0

     total cpu time spent up to now is        5.4 secs

     total energy              =    -427.06452842 Ry
     Harris-Foulkes estimate   =    -427.06518712 Ry
     estimated scf accuracy    <       0.00137828 Ry

     iteration #  3     ecut=    30.00 Ry     beta= 0.70
     Davidson diagonalization with overlap
     ethr =  3.01E-06,  avg # of iterations =  2.0

     total cpu time spent up to now is        5.4 secs

     total energy              =    -427.06455447 Ry
     Harris-Foulkes estimate   =    -427.06462790 Ry
     estimated scf accuracy    <       0.00026697 Ry

     iteration #  4     ecut=    30.00 Ry     beta= 0.70
     Davidson diagonalization with overlap
     ethr =  9.53E-07,  avg # of iterations =  1.0

     total cpu time spent up to now is        5.5 secs

     total energy              =    -427.06448720 Ry
     Harris-Foulkes estimate   =    -427.06456086 Ry
     estimated scf accuracy    <       0.00012973 Ry

     iteration #  5     ecut=    30.00 Ry     beta= 0.70
     Davidson diagonalization with overlap
     ethr =  4.63E-07,  avg # of iterations =  2.0

     total cpu time spent up to now is        5.5 secs

     total energy              =    -427.06449514 Ry
     Harris-Foulkes estimate   =    -427.06450294 Ry
     estimated scf accuracy    <       0.00001033 Ry

     iteration #  6     ecut=    30.00 Ry     beta= 0.70
     Davidson diagonalization with overlap
     ethr =  3.69E-08,  avg # of iterations =  2.0

     total cpu time spent up to now is        5.6 secs

     total energy              =    -427.06449847 Ry
     Harris-Foulkes estimate   =    -427.06449808 Ry
     estimated scf accuracy    <       0.00000008 Ry

     iteration #  7     ecut=    30.00 Ry     beta= 0.70
     Davidson diagonalization with overlap
     ethr =  2.97E-10,  avg # of iterations =  3.3

     total cpu time spent up to now is        5.7 secs

     total energy              =    -427.06449730 Ry
     Harris-Foulkes estimate   =    -427.06449926 Ry
     estimated scf accuracy    <       0.00000245 Ry

     iteration #  8     ecut=    30.00 Ry     beta= 0.70
     Davidson diagonalization with overlap
     ethr =  2.97E-10,  avg # of iterations =  3.7

     total cpu time spent up to now is        5.7 secs

     total energy              =    -427.06449803 Ry
     Harris-Foulkes estimate   =    -427.06449811 Ry
     estimated scf accuracy    <       0.00000011 Ry

     iteration #  9     ecut=    30.00 Ry     beta= 0.70
     Davidson diagonalization with overlap
     ethr =  2.97E-10,  avg # of iterations =  2.0

     total cpu time spent up to now is        5.8 secs

     End of self-consistent calculation

          k = 0.0000 0.0000 0.0000 (   893 PWs)   bands (ev):

   -16.3586 -16.3586 -16.3586 -16.3256 -16.3256 -16.1408 -16.1408 -16.1408
   -16.1204 -16.1204  -4.2375   8.0152   8.2738   8.2738

     occupation numbers 
     1.0000   1.0000   1.0000   1.0000   1.0000   1.0000   1.0000   1.0000
     1.0000   1.0000   1.0000   1.0000   1.0000   1.0000

          k =-0.3552-0.3552 0.3552 (   886 PWs)   bands (ev):

   -16.3741 -16.3741 -16.3374 -16.2869 -16.2869 -16.1667 -16.1667 -16.1566
   -16.0985 -16.0985  -2.2266   0.8191   6.8972   6.8972

     occupation numbers 
     1.0000   1.0000   1.0000   1.0000   1.0000   1.0000   1.0000   1.0000
     1.0000   1.0000   1.0000   1.0000   1.0000   1.0000

          k =-0.7104 0.0000 0.0000 (   894 PWs)   bands (ev):

   -16.3795 -16.3795 -16.3131 -16.3131 -16.2234 -16.2234 -16.1671 -16.1671
   -16.0859 -16.0859  -0.4785  -0.4785   5.2762   5.2762

     occupation numbers 
     1.0000   1.0000   1.0000   1.0000   1.0000   1.0000   1.0000   1.0000
     1.0000   1.0000   1.0000   1.0000   1.0000   1.0000

     highest occupied level (ev):     8.2738

!    total energy              =    -427.06449805 Ry
     Harris-Foulkes estimate   =    -427.06449805 Ry
     estimated scf accuracy    <          3.5E-11 Ry

     The total energy is the sum of the following terms:

     one-electron contribution =    -282.83435770 Ry
     hartree contribution      =     167.47487497 Ry
     xc contribution           =    -116.63483894 Ry
     ewald contribution        =    -195.07017638 Ry

     convergence has been achieved in   9 iterations

     Forces acting on atoms (cartesian axes, Ry/au):

     atom    1 type  1   force =     0.00000000   -0.00000000    0.00000000
     atom    2 type  2   force =     0.00000000    0.00000000    0.00000000
     The non-local contrib.  to forces
     atom    1 type  1   force =     0.00000000    0.00000000    0.00000000
     atom    2 type  2   force =     0.00000000    0.00000000    0.00000000
     The ionic contribution  to forces
     atom    1 type  1   force =     0.00000000    0.00000000    0.00000000
     atom    2 type  2   force =    -0.00000000   -0.00000000   -0.00000000
     The local contribution  to forces
     atom    1 type  1   force =     0.00000000   -0.00000000    0.00000000
     atom    2 type  2   force =    -0.00000002   -0.00000002   -0.00000002
     The core correction contribution to forces
     atom    1 type  1   force =    -0.00000000    0.00000000   -0.00000000
     atom    2 type  2   force =    -0.00000000   -0.00000000   -0.00000000
     The Hubbard contrib.    to forces
     atom    1 type  1   force =     0.00000000    0.00000000    0.00000000
     atom    2 type  2   force =     0.00000000    0.00000000    0.00000000
     The SCF correction term to forces
     atom    1 type  1   force =    -0.00000000   -0.00000000    0.00000000
     atom    2 type  2   force =    -0.00000000   -0.00000000   -0.00000000

     Total force =     0.000000     Total SCF correction =     0.000000


     Computing stress (Cartesian axis) and pressure

          total   stress  (Ry/bohr**3)                   (kbar)     P=    1.49
   0.00001013   0.00000000   0.00000000          1.49      0.00      0.00
  -0.00000000   0.00001013   0.00000000         -0.00      1.49      0.00
   0.00000000   0.00000000   0.00001013          0.00      0.00      1.49

     kinetic stress (kbar)   9802.10      0.00     -0.00
                               -0.00   9802.10      0.00
                               -0.00      0.00   9802.10

     local   stress (kbar)   1277.30      0.00      0.00
                                0.00   1277.30      0.00
                                0.00      0.00   1277.30

     nonloc. stress (kbar)   2703.01     -0.00     -0.00
                               -0.00   2703.01     -0.00
                               -0.00     -0.00   2703.01

     hartree stress (kbar)  25896.34     -0.00     -0.00
                               -0.00  25896.34     -0.00
                               -0.00     -0.00  25896.34

     exc-cor stress (kbar)  18998.90     -0.00     -0.00
                               -0.00  18998.90     -0.00
                               -0.00     -0.00  18998.90

     corecor stress (kbar) -28512.80      0.00      0.00
                                0.00 -28512.80      0.00
                                0.00      0.00 -28512.80

     ewald   stress (kbar) -30163.35     -0.00     -0.00
                               -0.00 -30163.35     -0.00
                               -0.00     -0.00 -30163.35

     hubbard stress (kbar)      0.00      0.00      0.00
                                0.00      0.00      0.00
                                0.00      0.00      0.00

     london  stress (kbar)      0.00      0.00      0.00
                                0.00      0.00      0.00
                                0.00      0.00      0.00

     DFT-D3  stress (kbar)      0.00      0.00      0.00
                                0.00      0.00      0.00
                                0.00      0.00      0.00

     XDM     stress (kbar)      0.00      0.00      0.00
                                0.00      0.00      0.00
                                0.00      0.00      0.00

     dft-nl  stress (kbar)      0.00      0.00      0.00
                                0.00      0.00      0.00
                                0.00      0.00      0.00

     TS-vdW  stress (kbar)      0.00      0.00      0.00
                                0.00      0.00      0.00
                                0.00      0.00      0.00



     number of scf cycles    =   4
     number of bfgs steps    =   2

     enthalpy old            =    -427.0644991288 Ry
     enthalpy new            =    -427.0644980538 Ry

     CASE: enthalpy_new > enthalpy_old

     new trust radius        =       0.0007326207 bohr
     new conv_thr            =       0.0000000100 Ry

     new unit-cell volume =    317.33695 a.u.^3 (    47.02448 Ang^3 )
     density =      5.12804 g/cm^3

CELL_PARAMETERS (angstrom)
   0.000000000   2.864824445   2.864824445
   2.864824445  -0.000000000   2.864824445
   2.864824445   2.864824445  -0.000000000

ATOMIC_POSITIONS (angstrom)
Ge1      0.000000000   0.000000000   0.000000000
Ge2      1.432412222   1.432412222   1.432412222



     Writing output data file aiida.save/
     NEW-OLD atomic charge density approx. for the potential

     Check: negative/imaginary core charge=   -0.000001    0.000000
     extrapolated charge   28.01953, renormalised to   28.00000

     total cpu time spent up to now is        6.7 secs

     Self-consistent Calculation

     iteration #  1     ecut=    30.00 Ry     beta= 0.70
     Davidson diagonalization with overlap
     ethr =  1.00E-06,  avg # of iterations =  2.0

     total cpu time spent up to now is        6.7 secs

     total energy              =    -427.06437715 Ry
     Harris-Foulkes estimate   =    -426.88259254 Ry
     estimated scf accuracy    <       0.00006366 Ry

     iteration #  2     ecut=    30.00 Ry     beta= 0.70
     Davidson diagonalization with overlap
     ethr =  2.27E-07,  avg # of iterations =  3.0

     total cpu time spent up to now is        6.8 secs

     total energy              =    -427.06450164 Ry
     Harris-Foulkes estimate   =    -427.06455124 Ry
     estimated scf accuracy    <       0.00010383 Ry

     iteration #  3     ecut=    30.00 Ry     beta= 0.70
     Davidson diagonalization with overlap
     ethr =  2.27E-07,  avg # of iterations =  2.0

     total cpu time spent up to now is        6.8 secs

     total energy              =    -427.06450377 Ry
     Harris-Foulkes estimate   =    -427.06450920 Ry
     estimated scf accuracy    <       0.00001998 Ry

     iteration #  4     ecut=    30.00 Ry     beta= 0.70
     Davidson diagonalization with overlap
     ethr =  7.13E-08,  avg # of iterations =  1.0

     total cpu time spent up to now is        6.9 secs

     total energy              =    -427.06449909 Ry
     Harris-Foulkes estimate   =    -427.06450423 Ry
     estimated scf accuracy    <       0.00000983 Ry

     iteration #  5     ecut=    30.00 Ry     beta= 0.70
     Davidson diagonalization with overlap
     ethr =  3.51E-08,  avg # of iterations =  2.0

     total cpu time spent up to now is        6.9 secs

     total energy              =    -427.06449913 Ry
     Harris-Foulkes estimate   =    -427.06450005 Ry
     estimated scf accuracy    <       0.00000124 Ry

     iteration #  6     ecut=    30.00 Ry     beta= 0.70
     Davidson diagonalization with overlap
     ethr =  4.44E-09,  avg # of iterations =  2.0

     total cpu time spent up to now is        7.0 secs

     End of self-consistent calculation

          k = 0.0000 0.0000 0.0000 (   893 PWs)   bands (ev):

   -16.3667 -16.3667 -16.3667 -16.3336 -16.3336 -16.1493 -16.1493 -16.1493
   -16.1288 -16.1288  -4.2411   8.0004   8.2650   8.2650

     occupation numbers 
     1.0000   1.0000   1.0000   1.0000   1.0000   1.0000   1.0000   1.0000
     1.0000   1.0000   1.0000   1.0000   1.0000   1.0000

          k =-0.3551-0.3551 0.3551 (   886 PWs)   bands (ev):

   -16.3820 -16.3820 -16.3454 -16.2950 -16.2950 -16.1751 -16.1751 -16.1650
   -16.1070 -16.1070  -2.2319   0.8134   6.8895   6.8895

     occupation numbers 
     1.0000   1.0000   1.0000   1.0000   1.0000   1.0000   1.0000   1.0000
     1.0000   1.0000   1.0000   1.0000   1.0000   1.0000

          k =-0.7103 0.0000 0.0000 (   894 PWs)   bands (ev):

   -16.3874 -16.3874 -16.3212 -16.3212 -16.2317 -16.2317 -16.1755 -16.1755
   -16.0944 -16.0944  -0.4847  -0.4847   5.2698   5.2698

     occupation numbers 
     1.0000   1.0000   1.0000   1.0000   1.0000   1.0000   1.0000   1.0000
     1.0000   1.0000   1.0000   1.0000   1.0000   1.0000

     highest occupied level (ev):     8.2650

!    total energy              =    -427.06449948 Ry
     Harris-Foulkes estimate   =    -427.06449948 Ry
     estimated scf accuracy    <          4.4E-09 Ry

     The total energy is the sum of the following terms:

     one-electron contribution =    -282.90825510 Ry
     hartree contribution      =     167.50233417 Ry
     xc contribution           =    -116.63375999 Ry
     ewald contribution        =    -195.02481855 Ry

     convergence has been achieved in   6 iterations

     Forces acting on atoms (cartesian axes, Ry/au):

     atom    1 type  1   force =     0.00000000    0.00000000    0.00000000
     atom    2 type  2   force =    -0.00000000   -0.00000000   -0.00000000
     The non-local contrib.  to forces
     atom    1 type  1   force =    -0.00000000    0.00000000   -0.00000000
     atom    2 type  2   force =    -0.00000000    0.00000000    0.00000000
     The ionic contribution  to forces
     atom    1 type  1   force =     0.00000000    0.00000000    0.00000000
     atom    2 type  2   force =    -0.00000000   -0.00000000   -0.00000000
     The local contribution  to forces
     atom    1 type  1   force =     0.00000000   -0.00000000    0.00000000
     atom    2 type  2   force =    -0.00000002   -0.00000002   -0.00000002
     The core correction contribution to forces
     atom    1 type  1   force =     0.00000000   -0.00000000   -0.00000000
     atom    2 type  2   force =    -0.00000000   -0.00000000   -0.00000000
     The Hubbard contrib.    to forces
     atom    1 type  1   force =     0.00000000    0.00000000    0.00000000
     atom    2 type  2   force =     0.00000000    0.00000000    0.00000000
     The SCF correction term to forces
     atom    1 type  1   force =    -0.00000000    0.00000000   -0.00000000
     atom    2 type  2   force =    -0.00000000   -0.00000000   -0.00000000

     Total force =     0.000000     Total SCF correction =     0.000000


     Computing stress (Cartesian axis) and pressure

          total   stress  (Ry/bohr**3)                   (kbar)     P=   -0.84
  -0.00000568  -0.00000000  -0.00000000         -0.84     -0.00     -0.00
  -0.00000000  -0.00000568   0.00000000         -0.00     -0.84      0.00
  -0.00000000   0.00000000  -0.00000568         -0.00      0.00     -0.84

     kinetic stress (kbar)   9794.97      0.00     -0.00
                                0.00   9794.97      0.00
                               -0.00     -0.00   9794.97

     local   stress (kbar)   1264.95      0.00      0.00
                                0.00   1264.95      0.00
                                0.00      0.00   1264.95

     nonloc. stress (kbar)   2699.16      0.00      0.00
                               -0.00   2699.16      0.00
                                0.00      0.00   2699.16

     hartree stress (kbar)  25882.52     -0.00     -0.00
                               -0.00  25882.52     -0.00
                               -0.00     -0.00  25882.52

     exc-cor stress (kbar)  18985.77     -0.00     -0.00
                               -0.00  18985.77     -0.00
                               -0.00     -0.00  18985.77

     corecor stress (kbar) -28492.89      0.00      0.00
                                0.00 -28492.89      0.00
                                0.00      0.00 -28492.89

     ewald   stress (kbar) -30135.30     -0.00     -0.00
                               -0.00 -30135.30     -0.00
                               -0.00     -0.00 -30135.30

     hubbard stress (kbar)      0.00      0.00      0.00
                                0.00      0.00      0.00
                                0.00      0.00      0.00

     london  stress (kbar)      0.00      0.00      0.00
                                0.00      0.00      0.00
                                0.00      0.00      0.00

     DFT-D3  stress (kbar)      0.00      0.00      0.00
                                0.00      0.00      0.00
                                0.00      0.00      0.00

     XDM     stress (kbar)      0.00      0.00      0.00
                                0.00      0.00      0.00
                                0.00      0.00      0.00

     dft-nl  stress (kbar)      0.00      0.00      0.00
                                0.00      0.00      0.00
                                0.00      0.00      0.00

     TS-vdW  stress (kbar)      0.00      0.00      0.00
                                0.00      0.00      0.00
                                0.00      0.00      0.00



     number of scf cycles    =   5
     number of bfgs steps    =   2

     enthalpy old            =    -427.0644991288 Ry
     enthalpy new            =    -427.0644994755 Ry

     CASE: enthalpy_new < enthalpy_old

     new trust radius        =       0.0001233460 bohr
     new conv_thr            =       0.0000000100 Ry

     new unit-cell volume =    317.30399 a.u.^3 (    47.01960 Ang^3 )
     density =      5.12857 g/cm^3

CELL_PARAMETERS (angstrom)
   0.000000000   2.864725263   2.864725263
   2.864725263  -0.000000000   2.864725263
   2.864725263   2.864725263  -0.000000000

ATOMIC_POSITIONS (angstrom)
Ge1      0.000000000   0.000000000   0.000000000
Ge2      1.432362631   1.432362631   1.432362631



     Writing output data file aiida.save/
     NEW-OLD atomic charge density approx. for the potential

     Check: negative/imaginary core charge=   -0.000001    0.000000
     extrapolated charge   27.99709, renormalised to   28.00000

     total cpu time spent up to now is        8.0 secs

     Self-consistent Calculation

     iteration #  1     ecut=    30.00 Ry     beta= 0.70
     Davidson diagonalization with overlap
     ethr =  1.00E-06,  avg # of iterations =  2.0

     Threshold (ethr) on eigenvalues was too large:
     Diagonalizing with lowered threshold

     Davidson diagonalization with overlap
     ethr =  5.39E-09,  avg # of iterations =  1.3

     total cpu time spent up to now is        8.0 secs

     total energy              =    -427.06449660 Ry
     Harris-Foulkes estimate   =    -427.09158981 Ry
     estimated scf accuracy    <       0.00000153 Ry

     iteration #  2     ecut=    30.00 Ry     beta= 0.70
     Davidson diagonalization with overlap
     ethr =  5.47E-09,  avg # of iterations =  3.0

     total cpu time spent up to now is        8.1 secs

     total energy              =    -427.06449941 Ry
     Harris-Foulkes estimate   =    -427.06450055 Ry
     estimated scf accuracy    <       0.00000233 Ry

     iteration #  3     ecut=    30.00 Ry     beta= 0.70
     Davidson diagonalization with overlap
     ethr =  5.47E-09,  avg # of iterations =  2.0

     total cpu time spent up to now is        8.2 secs

     total energy              =    -427.06449947 Ry
     Harris-Foulkes estimate   =    -427.06449959 Ry
     estimated scf accuracy    <       0.00000042 Ry

     iteration #  4     ecut=    30.00 Ry     beta= 0.70
     Davidson diagonalization with overlap
     ethr =  1.51E-09,  avg # of iterations =  1.0

     total cpu time spent up to now is        8.2 secs

     total energy              =    -427.06449940 Ry
     Harris-Foulkes estimate   =    -427.06449948 Ry
     estimated scf accuracy    <       0.00000019 Ry

     iteration #  5     ecut=    30.00 Ry     beta= 0.70
     Davidson diagonalization with overlap
     ethr =  6.77E-10,  avg # of iterations =  1.3

     total cpu time spent up to now is        8.2 secs

     total energy              =    -427.06449937 Ry
     Harris-Foulkes estimate   =    -427.06449941 Ry
     estimated scf accuracy    <       0.00000005 Ry

     iteration #  6     ecut=    30.00 Ry     beta= 0.70
     Davidson diagonalization with overlap
     ethr =  1.65E-10,  avg # of iterations =  2.0

     total cpu time spent up to now is        8.3 secs

     End of self-consistent calculation

          k = 0.0000 0.0000 0.0000 (   893 PWs)   bands (ev):

   -16.3662 -16.3662 -16.3662 -16.3332 -16.3332 -16.1488 -16.1488 -16.1488
   -16.1283 -16.1283  -4.2407   8.0023   8.2662   8.2662

     occupation numbers 
     1.0000   1.0000   1.0000   1.0000   1.0000   1.0000   1.0000   1.0000
     1.0000   1.0000   1.0000   1.0000   1.0000   1.0000

          k =-0.3551-0.3551 0.3551 (   886 PWs)   bands (ev):

   -16.3816 -16.3816 -16.3450 -16.2945 -16.2945 -16.1746 -16.1746 -16.1645
   -16.1065 -16.1065  -2.2313   0.8142   6.8905   6.8905

     occupation numbers 
     1.0000   1.0000   1.0000   1.0000   1.0000   1.0000   1.0000   1.0000
     1.0000   1.0000   1.0000   1.0000   1.0000   1.0000

          k =-0.7103 0.0000 0.0000 (   894 PWs)   bands (ev):

   -16.3870 -16.3870 -16.3207 -16.3207 -16.2312 -16.2312 -16.1750 -16.1750
   -16.0939 -16.0939  -0.4839  -0.4839   5.2706   5.2706

     occupation numbers 
     1.0000   1.0000   1.0000   1.0000   1.0000   1.0000   1.0000   1.0000
     1.0000   1.0000   1.0000   1.0000   1.0000   1.0000

     highest occupied level (ev):     8.2662

!    total energy              =    -427.06449939 Ry
     Harris-Foulkes estimate   =    -427.06449939 Ry
     estimated scf accuracy    <          1.2E-09 Ry

     The total energy is the sum of the following terms:

     one-electron contribution =    -282.89815517 Ry
     hartree contribution      =     167.49932715 Ry
     xc contribution           =    -116.63410069 Ry
     ewald contribution        =    -195.03157067 Ry

     convergence has been achieved in   6 iterations

     Forces acting on atoms (cartesian axes, Ry/au):

     atom    1 type  1   force =    -0.00000000    0.00000000   -0.00000000
     atom    2 type  2   force =     0.00000000   -0.00000000    0.00000000
     The non-local contrib.  to forces
     atom    1 type  1   force =    -0.00000000    0.00000000    0.00000000
     atom    2 type  2   force =     0.00000000    0.00000000    0.00000000
     The ionic contribution  to forces
     atom    1 type  1   force =     0.00000000    0.00000000    0.00000000
     atom    2 type  2   force =    -0.00000000   -0.00000000   -0.00000000
     The local contribution  to forces
     atom    1 type  1   force =     0.00000000   -0.00000000   -0.00000000
     atom    2 type  2   force =    -0.00000002   -0.00000002   -0.00000002
     The core correction contribution to forces
     atom    1 type  1   force =     0.00000000    0.00000000   -0.00000000
     atom    2 type  2   force =    -0.00000000   -0.00000000   -0.00000000
     The Hubbard contrib.    to forces
     atom    1 type  1   force =     0.00000000    0.00000000    0.00000000
     atom    2 type  2   force =     0.00000000    0.00000000    0.00000000
     The SCF correction term to forces
     atom    1 type  1   force =    -0.00000000   -0.00000000    0.00000000
     atom    2 type  2   force =     0.00000000    0.00000000    0.00000000

     Total force =     0.000000     Total SCF correction =     0.000000


     Computing stress (Cartesian axis) and pressure

          total   stress  (Ry/bohr**3)                   (kbar)     P=    1.11
   0.00000754   0.00000000   0.00000000          1.11      0.00      0.00
   0.00000000   0.00000754  -0.00000000          0.00      1.11     -0.00
   0.00000000  -0.00000000   0.00000754          0.00     -0.00      1.11

     kinetic stress (kbar)   9796.01      0.00     -0.00
                                0.00   9796.01      0.00
                               -0.00      0.00   9796.01

     local   stress (kbar)   1266.78      0.00      0.00
                                0.00   1266.78      0.00
                                0.00      0.00   1266.78

     nonloc. stress (kbar)   2701.21      0.00      0.00
                                0.00   2701.21      0.00
                                0.00      0.00   2701.21

     hartree stress (kbar)  25884.74     -0.00     -0.00
                               -0.00  25884.74     -0.00
                               -0.00     -0.00  25884.74

     exc-cor stress (kbar)  18987.71     -0.00     -0.00
                               -0.00  18987.71     -0.00
                               -0.00     -0.00  18987.71

     corecor stress (kbar) -28495.87      0.00      0.00
                                0.00 -28495.87      0.00
                                0.00      0.00 -28495.87

     ewald   stress (kbar) -30139.48     -0.00     -0.00
                               -0.00 -30139.48     -0.00
                               -0.00     -0.00 -30139.48

     hubbard stress (kbar)      0.00      0.00      0.00
                                0.00      0.00      0.00
                                0.00      0.00      0.00

     london  stress (kbar)      0.00      0.00      0.00
                                0.00      0.00      0.00
                                0.00      0.00      0.00

     DFT-D3  stress (kbar)      0.00      0.00      0.00
                                0.00      0.00      0.00
                                0.00      0.00      0.00

     XDM     stress (kbar)      0.00      0.00      0.00
                                0.00      0.00      0.00
                                0.00      0.00      0.00

     dft-nl  stress (kbar)      0.00      0.00      0.00
                                0.00      0.00      0.00
                                0.00      0.00      0.00

     TS-vdW  stress (kbar)      0.00      0.00      0.00
                                0.00      0.00      0.00
                                0.00      0.00      0.00



     number of scf cycles    =   6
     number of bfgs steps    =   3

     enthalpy old            =    -427.0644994755 Ry
     enthalpy new            =    -427.0644993856 Ry

     CASE: enthalpy_new > enthalpy_old

     new trust radius        =       0.0000416808 bohr

     trust_radius < trust_radius_min

     resetting bfgs history

     new conv_thr            =       0.0000000100 Ry

     new unit-cell volume =    317.20167 a.u.^3 (    47.00444 Ang^3 )
     density =      5.13023 g/cm^3

CELL_PARAMETERS (angstrom)
   0.000000000   2.864417296   2.864417296
   2.864417296  -0.000000000   2.864417296
   2.864417296   2.864417296  -0.000000000

ATOMIC_POSITIONS (angstrom)
Ge1      0.000000000   0.000000000   0.000000000
Ge2      1.432208648   1.432208648   1.432208648



     Writing output data file aiida.save/
     NEW-OLD atomic charge density approx. for the potential

     Check: negative/imaginary core charge=   -0.000001    0.000000
     extrapolated charge   27.99097, renormalised to   28.00000

     total cpu time spent up to now is        9.2 secs

     Self-consistent Calculation

     iteration #  1     ecut=    30.00 Ry     beta= 0.70
     Davidson diagonalization with overlap
     ethr =  1.00E-06,  avg # of iterations =  2.0

     Threshold (ethr) on eigenvalues was too large:
     Diagonalizing with lowered threshold

     Davidson diagonalization with overlap
     ethr =  4.74E-08,  avg # of iterations =  1.3

     total cpu time spent up to now is        9.3 secs

     total energy              =    -427.06447290 Ry
     Harris-Foulkes estimate   =    -427.14862180 Ry
     estimated scf accuracy    <       0.00001340 Ry

     iteration #  2     ecut=    30.00 Ry     beta= 0.70
     Davidson diagonalization with overlap
     ethr =  4.79E-08,  avg # of iterations =  3.0

     total cpu time spent up to now is        9.4 secs

     total energy              =    -427.06449931 Ry
     Harris-Foulkes estimate   =    -427.06450987 Ry
     estimated scf accuracy    <       0.00002216 Ry

     iteration #  3     ecut=    30.00 Ry     beta= 0.70
     Davidson diagonalization with overlap
     ethr =  4.79E-08,  avg # of iterations =  2.0

     total cpu time spent up to now is        9.4 secs

     total energy              =    -427.06449977 Ry
     Harris-Foulkes estimate   =    -427.06450091 Ry
     estimated scf accuracy    <       0.00000428 Ry

     iteration #  4     ecut=    30.00 Ry     beta= 0.70
     Davidson diagonalization with overlap
     ethr =  1.53E-08,  avg # of iterations =  1.0

     total cpu time spent up to now is        9.5 secs

     total energy              =    -427.06449870 Ry
     Harris-Foulkes estimate   =    -427.06449987 Ry
     estimated scf accuracy    <       0.00000214 Ry

     iteration #  5     ecut=    30.00 Ry     beta= 0.70
     Davidson diagonalization with overlap
     ethr =  7.63E-09,  avg # of iterations =  2.0

     total cpu time spent up to now is        9.5 secs

     total energy              =    -427.06449877 Ry
     Harris-Foulkes estimate   =    -427.06449893 Ry
     estimated scf accuracy    <       0.00000022 Ry

     iteration #  6     ecut=    30.00 Ry     beta= 0.70
     Davidson diagonalization with overlap
     ethr =  7.95E-10,  avg # of iterations =  2.0

     total cpu time spent up to now is        9.6 secs

     End of self-consistent calculation

          k = 0.0000 0.0000 0.0000 (   893 PWs)   bands (ev):

   -16.3623 -16.3623 -16.3623 -16.3292 -16.3292 -16.1447 -16.1447 -16.1447
   -16.1242 -16.1242  -4.2390   8.0093   8.2703   8.2703

     occupation numbers 
     1.0000   1.0000   1.0000   1.0000   1.0000   1.0000   1.0000   1.0000
     1.0000   1.0000   1.0000   1.0000   1.0000   1.0000

          k =-0.3552-0.3552 0.3552 (   886 PWs)   bands (ev):

   -16.3777 -16.3777 -16.3411 -16.2906 -16.2906 -16.1705 -16.1705 -16.1604
   -16.1023 -16.1023  -2.2288   0.8168   6.8941   6.8941

     occupation numbers 
     1.0000   1.0000   1.0000   1.0000   1.0000   1.0000   1.0000   1.0000
     1.0000   1.0000   1.0000   1.0000   1.0000   1.0000

          k =-0.7104 0.0000 0.0000 (   894 PWs)   bands (ev):

   -16.3831 -16.3831 -16.3168 -16.3168 -16.2272 -16.2272 -16.1709 -16.1709
   -16.0898 -16.0898  -0.4810  -0.4810   5.2736   5.2736

     occupation numbers 
     1.0000   1.0000   1.0000   1.0000   1.0000   1.0000   1.0000   1.0000
     1.0000   1.0000   1.0000   1.0000   1.0000   1.0000

     highest occupied level (ev):     8.2703

!    total energy              =    -427.06449883 Ry
     Harris-Foulkes estimate   =    -427.06449883 Ry
     estimated scf accuracy    <          1.4E-09 Ry

     The total energy is the sum of the following terms:

     one-electron contribution =    -282.86376462 Ry
     hartree contribution      =     167.48635773 Ry
     xc contribution           =    -116.63455253 Ry
     ewald contribution        =    -195.05253942 Ry

     convergence has been achieved in   6 iterations

     Forces acting on atoms (cartesian axes, Ry/au):

     atom    1 type  1   force =     0.00000000    0.00000000    0.00000000
     atom    2 type  2   force =     0.00000000   -0.00000000    0.00000000
     The non-local contrib.  to forces
     atom    1 type  1   force =    -0.00000000    0.00000000   -0.00000000
     atom    2 type  2   force =     0.00000000    0.00000000    0.00000000
     The ionic contribution  to forces
     atom    1 type  1   force =     0.00000000    0.00000000    0.00000000
     atom    2 type  2   force =    -0.00000000   -0.00000000   -0.00000000
     The local contribution  to forces
     atom    1 type  1   force =     0.00000000   -0.00000000    0.00000000
     atom    2 type  2   force =    -0.00000002   -0.00000002   -0.00000002
     The core correction contribution to forces
     atom    1 type  1   force =     0.00000000   -0.00000000   -0.00000000
     atom    2 type  2   force =    -0.00000000   -0.00000000   -0.00000000
     The Hubbard contrib.    to forces
     atom    1 type  1   force =     0.00000000    0.00000000    0.00000000
     atom    2 type  2   force =     0.00000000    0.00000000    0.00000000
     The SCF correction term to forces
     atom    1 type  1   force =     0.00000000    0.00000000   -0.00000000
     atom    2 type  2   force =     0.00000000    0.00000000    0.00000000

     Total force =     0.000000     Total SCF correction =     0.000000


     Computing stress (Cartesian axis) and pressure

          total   stress  (Ry/bohr**3)                   (kbar)     P=    1.75
   0.00001192  -0.00000000   0.00000000          1.75     -0.00      0.00
   0.00000000   0.00001192   0.00000000          0.00      1.75      0.00
  -0.00000000   0.00000000   0.00001192         -0.00      0.00      1.75

     kinetic stress (kbar)   9799.31      0.00      0.00
                                0.00   9799.31     -0.00
                                0.00     -0.00   9799.31

     local   stress (kbar)   1272.49      0.00      0.00
                                0.00   1272.49      0.00
                                0.00      0.00   1272.49

     nonloc. stress (kbar)   2702.59     -0.00      0.00
                                0.00   2702.59      0.00
                                0.00      0.00   2702.59

     hartree stress (kbar)  25891.09      0.00     -0.00
                                0.00  25891.09      0.00
                               -0.00      0.00  25891.09

     exc-cor stress (kbar)  18993.78     -0.00     -0.00
                               -0.00  18993.78     -0.00
                               -0.00     -0.00  18993.78

     corecor stress (kbar) -28505.07      0.00      0.00
                                0.00 -28505.07      0.00
                                0.00      0.00 -28505.07

     ewald   stress (kbar) -30152.44     -0.00     -0.00
                               -0.00 -30152.44     -0.00
                               -0.00     -0.00 -30152.44

     hubbard stress (kbar)      0.00      0.00      0.00
                                0.00      0.00      0.00
                                0.00      0.00      0.00

     london  stress (kbar)      0.00      0.00      0.00
                                0.00      0.00      0.00
                                0.00      0.00      0.00

     DFT-D3  stress (kbar)      0.00      0.00      0.00
                                0.00      0.00      0.00
                                0.00      0.00      0.00

     XDM     stress (kbar)      0.00      0.00      0.00
                                0.00      0.00      0.00
                                0.00      0.00      0.00

     dft-nl  stress (kbar)      0.00      0.00      0.00
                                0.00      0.00      0.00
                                0.00      0.00      0.00

     TS-vdW  stress (kbar)      0.00      0.00      0.00
[...]
     Davidson diagonalization with overlap
     ethr =  6.87E-09,  avg # of iterations =  2.0

     total cpu time spent up to now is       64.6 secs

     total energy              =    -427.06449877 Ry
     Harris-Foulkes estimate   =    -427.06449892 Ry
     estimated scf accuracy    <       0.00000020 Ry

     iteration #  6     ecut=    30.00 Ry     beta= 0.70
     Davidson diagonalization with overlap
     ethr =  7.00E-10,  avg # of iterations =  2.0

     total cpu time spent up to now is       64.7 secs

     End of self-consistent calculation

          k = 0.0000 0.0000 0.0000 (   893 PWs)   bands (ev):

   -16.3624 -16.3624 -16.3624 -16.3294 -16.3294 -16.1448 -16.1448 -16.1448
   -16.1243 -16.1243  -4.2390   8.0093   8.2702   8.2702

     occupation numbers 
     1.0000   1.0000   1.0000   1.0000   1.0000   1.0000   1.0000   1.0000
     1.0000   1.0000   1.0000   1.0000   1.0000   1.0000

          k =-0.3552-0.3552 0.3552 (   886 PWs)   bands (ev):

   -16.3778 -16.3778 -16.3412 -16.2907 -16.2907 -16.1707 -16.1707 -16.1606
   -16.1025 -16.1025  -2.2288   0.8168   6.8941   6.8941

     occupation numbers 
     1.0000   1.0000   1.0000   1.0000   1.0000   1.0000   1.0000   1.0000
     1.0000   1.0000   1.0000   1.0000   1.0000   1.0000

          k =-0.7104 0.0000 0.0000 (   894 PWs)   bands (ev):

   -16.3833 -16.3833 -16.3169 -16.3169 -16.2273 -16.2273 -16.1710 -16.1710
   -16.0899 -16.0899  -0.4810  -0.4810   5.2736   5.2736

     occupation numbers 
     1.0000   1.0000   1.0000   1.0000   1.0000   1.0000   1.0000   1.0000
     1.0000   1.0000   1.0000   1.0000   1.0000   1.0000

     highest occupied level (ev):     8.2702

!    total energy              =    -427.06449883 Ry
     Harris-Foulkes estimate   =    -427.06449883 Ry
     estimated scf accuracy    <          2.5E-09 Ry

     The total energy is the sum of the following terms:

     one-electron contribution =    -282.86388581 Ry
     hartree contribution      =     167.48650457 Ry
     xc contribution           =    -116.63457806 Ry
     ewald contribution        =    -195.05253953 Ry

     convergence has been achieved in   6 iterations

     Forces acting on atoms (cartesian axes, Ry/au):

     atom    1 type  1   force =     0.00000000    0.00000000    0.00000000
     atom    2 type  2   force =    -0.00000000    0.00000000   -0.00000000
     The non-local contrib.  to forces
     atom    1 type  1   force =     0.00000000   -0.00000000   -0.00000000
     atom    2 type  2   force =    -0.00000000    0.00000000    0.00000000
     The ionic contribution  to forces
     atom    1 type  1   force =     0.00000000    0.00000000    0.00000000
     atom    2 type  2   force =    -0.00000000   -0.00000000   -0.00000000
     The local contribution  to forces
     atom    1 type  1   force =    -0.00000000    0.00000000    0.00000000
     atom    2 type  2   force =    -0.00000002   -0.00000002   -0.00000002
     The core correction contribution to forces
     atom    1 type  1   force =    -0.00000000   -0.00000000   -0.00000000
     atom    2 type  2   force =    -0.00000000   -0.00000000   -0.00000000
     The Hubbard contrib.    to forces
     atom    1 type  1   force =     0.00000000    0.00000000    0.00000000
     atom    2 type  2   force =     0.00000000    0.00000000    0.00000000
     The SCF correction term to forces
     atom    1 type  1   force =     0.00000000    0.00000000   -0.00000000
     atom    2 type  2   force =     0.00000000    0.00000000    0.00000000

     Total force =     0.000000     Total SCF correction =     0.000000


     Computing stress (Cartesian axis) and pressure

          total   stress  (Ry/bohr**3)                   (kbar)     P=    1.98
   0.00001348  -0.00000000   0.00000000          1.98     -0.00      0.00
  -0.00000000   0.00001348  -0.00000000         -0.00      1.98     -0.00
   0.00000000  -0.00000000   0.00001348          0.00     -0.00      1.98

     kinetic stress (kbar)   9799.31     -0.00     -0.00
                               -0.00   9799.31     -0.00
                               -0.00     -0.00   9799.31

     local   stress (kbar)   1272.49      0.00      0.00
                                0.00   1272.49      0.00
                                0.00      0.00   1272.49

     nonloc. stress (kbar)   2702.80      0.00      0.00
                                0.00   2702.80      0.00
                                0.00      0.00   2702.80

     hartree stress (kbar)  25891.11     -0.00     -0.00
                               -0.00  25891.11      0.00
                               -0.00      0.00  25891.11

     exc-cor stress (kbar)  18993.78     -0.00     -0.00
                               -0.00  18993.78     -0.00
                               -0.00     -0.00  18993.78

     corecor stress (kbar) -28505.07      0.00      0.00
                                0.00 -28505.07      0.00
                                0.00      0.00 -28505.07

     ewald   stress (kbar) -30152.44     -0.00     -0.00
                               -0.00 -30152.44     -0.00
                               -0.00     -0.00 -30152.44

     hubbard stress (kbar)      0.00      0.00      0.00
                                0.00      0.00      0.00
                                0.00      0.00      0.00

     london  stress (kbar)      0.00      0.00      0.00
                                0.00      0.00      0.00
                                0.00      0.00      0.00

     DFT-D3  stress (kbar)      0.00      0.00      0.00
                                0.00      0.00      0.00
                                0.00      0.00      0.00

     XDM     stress (kbar)      0.00      0.00      0.00
                                0.00      0.00      0.00
                                0.00      0.00      0.00

     dft-nl  stress (kbar)      0.00      0.00      0.00
                                0.00      0.00      0.00
                                0.00      0.00      0.00

     TS-vdW  stress (kbar)      0.00      0.00      0.00
                                0.00      0.00      0.00
                                0.00      0.00      0.00



     number of scf cycles    =  49
     number of bfgs steps    =   3

     enthalpy old            =    -427.0644994755 Ry
     enthalpy new            =    -427.0644988310 Ry

     CASE: enthalpy_new > enthalpy_old

     new trust radius        =       0.0001377352 bohr
     new conv_thr            =       0.0000000100 Ry

     new unit-cell volume =    317.30014 a.u.^3 (    47.01903 Ang^3 )
     density =      5.12864 g/cm^3

CELL_PARAMETERS (angstrom)
   0.000000000   2.864713685   2.864713685
   2.864713685  -0.000000000   2.864713685
   2.864713685   2.864713685  -0.000000000

ATOMIC_POSITIONS (angstrom)
Ge1      0.000000000   0.000000000   0.000000000
Ge2      1.432356842   1.432356842   1.432356842



     Writing output data file aiida.save/
     NEW-OLD atomic charge density approx. for the potential

     Check: negative/imaginary core charge=   -0.000001    0.000000
     extrapolated charge   28.00869, renormalised to   28.00000

     total cpu time spent up to now is       65.7 secs

     Self-consistent Calculation

     iteration #  1     ecut=    30.00 Ry     beta= 0.70
     Davidson diagonalization with overlap
     ethr =  1.00E-06,  avg # of iterations =  2.0

     Threshold (ethr) on eigenvalues was too large:
     Diagonalizing with lowered threshold

     Davidson diagonalization with overlap
     ethr =  4.60E-08,  avg # of iterations =  1.0

     total cpu time spent up to now is       65.8 secs

     total energy              =    -427.06447499 Ry
     Harris-Foulkes estimate   =    -426.98355267 Ry
     estimated scf accuracy    <       0.00001289 Ry

     iteration #  2     ecut=    30.00 Ry     beta= 0.70
     Davidson diagonalization with overlap
     ethr =  4.60E-08,  avg # of iterations =  3.0

     total cpu time spent up to now is       65.8 secs

     total energy              =    -427.06449975 Ry
     Harris-Foulkes estimate   =    -427.06450967 Ry
     estimated scf accuracy    <       0.00002066 Ry

     iteration #  3     ecut=    30.00 Ry     beta= 0.70
     Davidson diagonalization with overlap
     ethr =  4.60E-08,  avg # of iterations =  2.0

     total cpu time spent up to now is       65.9 secs

     total energy              =    -427.06450021 Ry
     Harris-Foulkes estimate   =    -427.06450127 Ry
     estimated scf accuracy    <       0.00000391 Ry

     iteration #  4     ecut=    30.00 Ry     beta= 0.70
     Davidson diagonalization with overlap
     ethr =  1.40E-08,  avg # of iterations =  1.0

     total cpu time spent up to now is       65.9 secs

     total energy              =    -427.06449934 Ry
     Harris-Foulkes estimate   =    -427.06450030 Ry
     estimated scf accuracy    <       0.00000193 Ry

     iteration #  5     ecut=    30.00 Ry     beta= 0.70
     Davidson diagonalization with overlap
     ethr =  6.88E-09,  avg # of iterations =  2.0

     total cpu time spent up to now is       66.0 secs

     total energy              =    -427.06449928 Ry
     Harris-Foulkes estimate   =    -427.06449951 Ry
     estimated scf accuracy    <       0.00000030 Ry

     iteration #  6     ecut=    30.00 Ry     beta= 0.70
     Davidson diagonalization with overlap
     ethr =  1.07E-09,  avg # of iterations =  2.0

     total cpu time spent up to now is       66.0 secs

     End of self-consistent calculation

          k = 0.0000 0.0000 0.0000 (   893 PWs)   bands (ev):

   -16.3652 -16.3652 -16.3652 -16.3322 -16.3322 -16.1478 -16.1478 -16.1478
   -16.1273 -16.1273  -4.2405   8.0028   8.2665   8.2665

     occupation numbers 
     1.0000   1.0000   1.0000   1.0000   1.0000   1.0000   1.0000   1.0000
     1.0000   1.0000   1.0000   1.0000   1.0000   1.0000

          k =-0.3551-0.3551 0.3551 (   886 PWs)   bands (ev):

   -16.3806 -16.3806 -16.3440 -16.2935 -16.2935 -16.1736 -16.1736 -16.1635
   -16.1055 -16.1055  -2.2310   0.8144   6.8908   6.8908

     occupation numbers 
     1.0000   1.0000   1.0000   1.0000   1.0000   1.0000   1.0000   1.0000
     1.0000   1.0000   1.0000   1.0000   1.0000   1.0000

          k =-0.7103 0.0000 0.0000 (   894 PWs)   bands (ev):

   -16.3860 -16.3860 -16.3197 -16.3197 -16.2302 -16.2302 -16.1740 -16.1740
   -16.0929 -16.0929  -0.4837  -0.4837   5.2708   5.2708

     occupation numbers 
     1.0000   1.0000   1.0000   1.0000   1.0000   1.0000   1.0000   1.0000
     1.0000   1.0000   1.0000   1.0000   1.0000   1.0000

     highest occupied level (ev):     8.2665

!    total energy              =    -427.06449937 Ry
     Harris-Foulkes estimate   =    -427.06449937 Ry
     estimated scf accuracy    <          4.2E-09 Ry

     The total energy is the sum of the following terms:

     one-electron contribution =    -282.89589178 Ry
     hartree contribution      =     167.49766939 Ry
     xc contribution           =    -116.63391807 Ry
     ewald contribution        =    -195.03235891 Ry

     convergence has been achieved in   6 iterations

     Forces acting on atoms (cartesian axes, Ry/au):

     atom    1 type  1   force =     0.00000000    0.00000000    0.00000000
     atom    2 type  2   force =     0.00000000    0.00000000    0.00000000
     The non-local contrib.  to forces
     atom    1 type  1   force =     0.00000000    0.00000000    0.00000000
     atom    2 type  2   force =     0.00000000    0.00000000    0.00000000
     The ionic contribution  to forces
     atom    1 type  1   force =     0.00000000    0.00000000    0.00000000
     atom    2 type  2   force =    -0.00000000   -0.00000000   -0.00000000
     The local contribution  to forces
     atom    1 type  1   force =     0.00000000   -0.00000000   -0.00000000
     atom    2 type  2   force =    -0.00000002   -0.00000002   -0.00000002
     The core correction contribution to forces
     atom    1 type  1   force =    -0.00000000   -0.00000000   -0.00000000
     atom    2 type  2   force =    -0.00000000   -0.00000000   -0.00000000
     The Hubbard contrib.    to forces
     atom    1 type  1   force =     0.00000000    0.00000000    0.00000000
     atom    2 type  2   force =     0.00000000    0.00000000    0.00000000
     The SCF correction term to forces
     atom    1 type  1   force =    -0.00000000   -0.00000000    0.00000000
     atom    2 type  2   force =    -0.00000000   -0.00000000   -0.00000000

     Total force =     0.000000     Total SCF correction =     0.000000


     Computing stress (Cartesian axis) and pressure

          total   stress  (Ry/bohr**3)                   (kbar)     P=   -0.63
  -0.00000429   0.00000000   0.00000000         -0.63      0.00      0.00
   0.00000000  -0.00000429   0.00000000          0.00     -0.63      0.00
  -0.00000000   0.00000000  -0.00000429         -0.00      0.00     -0.63

     kinetic stress (kbar)   9796.16      0.00      0.00
                                0.00   9796.16     -0.00
                                0.00     -0.00   9796.16

     local   stress (kbar)   1266.99      0.00      0.00
                                0.00   1266.99      0.00
                                0.00      0.00   1266.99

     nonloc. stress (kbar)   2699.63     -0.00     -0.00
                               -0.00   2699.63     -0.00
                               -0.00     -0.00   2699.63

     hartree stress (kbar)  25884.80     -0.00     -0.00
                               -0.00  25884.80     -0.00
                               -0.00     -0.00  25884.80

     exc-cor stress (kbar)  18987.95     -0.00     -0.00
                               -0.00  18987.95     -0.00
                               -0.00     -0.00  18987.95

     corecor stress (kbar) -28496.20      0.00      0.00
                                0.00 -28496.20      0.00
                                0.00      0.00 -28496.20

     ewald   stress (kbar) -30139.96     -0.00     -0.00
                               -0.00 -30139.96     -0.00
                               -0.00     -0.00 -30139.96

     hubbard stress (kbar)      0.00      0.00      0.00
                                0.00      0.00      0.00
                                0.00      0.00      0.00

     london  stress (kbar)      0.00      0.00      0.00
                                0.00      0.00      0.00
                                0.00      0.00      0.00

     DFT-D3  stress (kbar)      0.00      0.00      0.00
                                0.00      0.00      0.00
                                0.00      0.00      0.00

     XDM     stress (kbar)      0.00      0.00      0.00
                                0.00      0.00      0.00
                                0.00      0.00      0.00

     dft-nl  stress (kbar)      0.00      0.00      0.00
                                0.00      0.00      0.00
                                0.00      0.00      0.00

     TS-vdW  stress (kbar)      0.00      0.00      0.00
                                0.00      0.00      0.00
                                0.00      0.00      0.00



     number of scf cycles    =  50
     number of bfgs steps    =   3

     enthalpy old            =    -427.0644994755 Ry
     enthalpy new            =    -427.0644993705 Ry

     CASE: enthalpy_new > enthalpy_old

     new trust radius        =       0.0000458646 bohr

     trust_radius < trust_radius_min

     resetting bfgs history

     new conv_thr            =       0.0000000100 Ry

     new unit-cell volume =    317.20167 a.u.^3 (    47.00444 Ang^3 )
     density =      5.13023 g/cm^3

CELL_PARAMETERS (angstrom)
   0.000000000   2.864417294   2.864417294
   2.864417294  -0.000000000   2.864417294
   2.864417294   2.864417294  -0.000000000

ATOMIC_POSITIONS (angstrom)
Ge1      0.000000000   0.000000000   0.000000000
Ge2      1.432208647   1.432208647   1.432208647



     Writing output data file aiida.save/
     NEW-OLD atomic charge density approx. for the potential

     Check: negative/imaginary core charge=   -0.000001    0.000000
     extrapolated charge   27.99131, renormalised to   28.00000

     Writing output data file aiida.save/

     init_run     :      0.75s CPU      0.76s WALL (       1 calls)
     electrons    :     17.95s CPU     18.24s WALL (      50 calls)
     update_pot   :     15.12s CPU     15.29s WALL (      50 calls)
     forces       :      8.61s CPU      8.64s WALL (      50 calls)
     stress       :     20.43s CPU     20.52s WALL (      50 calls)

     Called by init_run:
     wfcinit      :      0.01s CPU      0.02s WALL (       1 calls)
     wfcinit:atom :      0.00s CPU      0.00s WALL (       3 calls)
     wfcinit:wfcr :      0.01s CPU      0.01s WALL (       3 calls)
     potinit      :      0.07s CPU      0.07s WALL (       1 calls)
     hinit0       :      0.65s CPU      0.65s WALL (       1 calls)

     Called by electrons:
     c_bands      :      7.02s CPU      7.23s WALL (     353 calls)
     sum_band     :      5.61s CPU      5.66s WALL (     353 calls)
     v_of_rho     :      1.93s CPU      1.93s WALL (     358 calls)
     v_h          :      0.09s CPU      0.09s WALL (     358 calls)
     v_xc         :      2.34s CPU      2.35s WALL (     458 calls)
     newd         :      3.86s CPU      3.87s WALL (     358 calls)
     mix_rho      :      0.15s CPU      0.15s WALL (     353 calls)

     Called by c_bands:
     init_us_2    :      0.18s CPU      0.18s WALL (    2421 calls)
     cegterg      :      6.77s CPU      6.98s WALL (    1059 calls)

     Called by sum_band:
     sum_band:bec :      0.02s CPU      0.02s WALL (    1059 calls)
     addusdens    :      4.26s CPU      4.28s WALL (     353 calls)

     Called by *egterg:
     h_psi        :      4.81s CPU      4.96s WALL (    3108 calls)
     s_psi        :      0.27s CPU      0.28s WALL (    3108 calls)
     g_psi        :      0.02s CPU      0.02s WALL (    2046 calls)
     cdiaghg      :      0.90s CPU      0.92s WALL (    2820 calls)
     cegterg:over :      0.36s CPU      0.37s WALL (    2046 calls)
     cegterg:upda :      0.16s CPU      0.17s WALL (    2046 calls)
     cegterg:last :      0.09s CPU      0.10s WALL (    1072 calls)

     Called by h_psi:
     h_psi:pot    :      4.80s CPU      4.95s WALL (    3108 calls)
     h_psi:calbec :      0.29s CPU      0.30s WALL (    3108 calls)
     vloc_psi     :      4.23s CPU      4.36s WALL (    3108 calls)
     add_vuspsi   :      0.27s CPU      0.28s WALL (    3108 calls)

     General routines
     calbec       :      0.47s CPU      0.49s WALL (    4917 calls)
     fft          :      1.89s CPU      1.92s WALL (    5951 calls)
     ffts         :      0.06s CPU      0.06s WALL (     711 calls)
     fftw         :      4.77s CPU      4.92s WALL (   93904 calls)
     interpolate  :      0.11s CPU      0.11s WALL (     358 calls)
     davcio       :      0.00s CPU      0.00s WALL (       3 calls)

     Parallel routines
     fft_scatt_xy :      0.47s CPU      0.48s WALL (  100566 calls)
     fft_scatt_yz :      1.85s CPU      1.90s WALL (  100566 calls)

     PWSCF        :   1m 4.08s CPU   1m 7.09s WALL


   This run was terminated on:  19:47:40  26Mar2019            

=------------------------------------------------------------------------------=
   JOB DONE.
=------------------------------------------------------------------------------=
-------------------------------------------------------
Primary job  terminated normally, but 1 process returned
a non-zero exit code.. Per user-direction, the job has been aborted.
-------------------------------------------------------
--------------------------------------------------------------------------
mpirun detected that one or more processes exited with non-zero status, thus causing
the job to be terminated. The first process to do so was:

  Process name: [[10870,1],2]
  Exit code:    3
--------------------------------------------------------------------------
